+ 0.1 2 0 cbr 1000 ------- 2 2.0 4.0 0 0
- 0.1 2 0 cbr 1000 ------- 2 2.0 4.0 0 0
+ 0.108 2 0 cbr 1000 ------- 2 2.0 4.0 1 1
- 0.108 2 0 cbr 1000 ------- 2 2.0 4.0 1 1
r 0.114 2 0 cbr 1000 ------- 2 2.0 4.0 0 0
+ 0.114 0 4 cbr 1000 ------- 2 2.0 4.0 0 0
- 0.114 0 4 cbr 1000 ------- 2 2.0 4.0 0 0
+ 0.116 2 0 cbr 1000 ------- 2 2.0 4.0 2 2
- 0.116 2 0 cbr 1000 ------- 2 2.0 4.0 2 2
r 0.122 2 0 cbr 1000 ------- 2 2.0 4.0 1 1
+ 0.122 0 4 cbr 1000 ------- 2 2.0 4.0 1 1
- 0.122 0 4 cbr 1000 ------- 2 2.0 4.0 1 1
+ 0.124 2 0 cbr 1000 ------- 2 2.0 4.0 3 3
- 0.124 2 0 cbr 1000 ------- 2 2.0 4.0 3 3
r 0.128 0 4 cbr 1000 ------- 2 2.0 4.0 0 0
r 0.13 2 0 cbr 1000 ------- 2 2.0 4.0 2 2
+ 0.13 0 4 cbr 1000 ------- 2 2.0 4.0 2 2
- 0.13 0 4 cbr 1000 ------- 2 2.0 4.0 2 2
+ 0.132 2 0 cbr 1000 ------- 2 2.0 4.0 4 4
- 0.132 2 0 cbr 1000 ------- 2 2.0 4.0 4 4
r 0.136 0 4 cbr 1000 ------- 2 2.0 4.0 1 1
r 0.138 2 0 cbr 1000 ------- 2 2.0 4.0 3 3
+ 0.138 0 4 cbr 1000 ------- 2 2.0 4.0 3 3
- 0.138 0 4 cbr 1000 ------- 2 2.0 4.0 3 3
+ 0.14 2 0 cbr 1000 ------- 2 2.0 4.0 5 5
- 0.14 2 0 cbr 1000 ------- 2 2.0 4.0 5 5
r 0.144 0 4 cbr 1000 ------- 2 2.0 4.0 2 2
r 0.146 2 0 cbr 1000 ------- 2 2.0 4.0 4 4
+ 0.146 0 4 cbr 1000 ------- 2 2.0 4.0 4 4
- 0.146 0 4 cbr 1000 ------- 2 2.0 4.0 4 4
+ 0.148 2 0 cbr 1000 ------- 2 2.0 4.0 6 6
- 0.148 2 0 cbr 1000 ------- 2 2.0 4.0 6 6
r 0.152 0 4 cbr 1000 ------- 2 2.0 4.0 3 3
r 0.154 2 0 cbr 1000 ------- 2 2.0 4.0 5 5
+ 0.154 0 4 cbr 1000 ------- 2 2.0 4.0 5 5
- 0.154 0 4 cbr 1000 ------- 2 2.0 4.0 5 5
+ 0.156 2 0 cbr 1000 ------- 2 2.0 4.0 7 7
- 0.156 2 0 cbr 1000 ------- 2 2.0 4.0 7 7
r 0.16 0 4 cbr 1000 ------- 2 2.0 4.0 4 4
r 0.162 2 0 cbr 1000 ------- 2 2.0 4.0 6 6
+ 0.162 0 4 cbr 1000 ------- 2 2.0 4.0 6 6
- 0.162 0 4 cbr 1000 ------- 2 2.0 4.0 6 6
+ 0.164 2 0 cbr 1000 ------- 2 2.0 4.0 8 8
- 0.164 2 0 cbr 1000 ------- 2 2.0 4.0 8 8
r 0.168 0 4 cbr 1000 ------- 2 2.0 4.0 5 5
r 0.17 2 0 cbr 1000 ------- 2 2.0 4.0 7 7
+ 0.17 0 4 cbr 1000 ------- 2 2.0 4.0 7 7
- 0.17 0 4 cbr 1000 ------- 2 2.0 4.0 7 7
+ 0.172 2 0 cbr 1000 ------- 2 2.0 4.0 9 9
- 0.172 2 0 cbr 1000 ------- 2 2.0 4.0 9 9
r 0.176 0 4 cbr 1000 ------- 2 2.0 4.0 6 6
r 0.178 2 0 cbr 1000 ------- 2 2.0 4.0 8 8
+ 0.178 0 4 cbr 1000 ------- 2 2.0 4.0 8 8
- 0.178 0 4 cbr 1000 ------- 2 2.0 4.0 8 8
+ 0.18 2 0 cbr 1000 ------- 2 2.0 4.0 10 10
- 0.18 2 0 cbr 1000 ------- 2 2.0 4.0 10 10
r 0.184 0 4 cbr 1000 ------- 2 2.0 4.0 7 7
r 0.186 2 0 cbr 1000 ------- 2 2.0 4.0 9 9
+ 0.186 0 4 cbr 1000 ------- 2 2.0 4.0 9 9
- 0.186 0 4 cbr 1000 ------- 2 2.0 4.0 9 9
+ 0.188 2 0 cbr 1000 ------- 2 2.0 4.0 11 11
- 0.188 2 0 cbr 1000 ------- 2 2.0 4.0 11 11
r 0.192 0 4 cbr 1000 ------- 2 2.0 4.0 8 8
r 0.194 2 0 cbr 1000 ------- 2 2.0 4.0 10 10
+ 0.194 0 4 cbr 1000 ------- 2 2.0 4.0 10 10
- 0.194 0 4 cbr 1000 ------- 2 2.0 4.0 10 10
+ 0.196 2 0 cbr 1000 ------- 2 2.0 4.0 12 12
- 0.196 2 0 cbr 1000 ------- 2 2.0 4.0 12 12
r 0.2 0 4 cbr 1000 ------- 2 2.0 4.0 9 9
r 0.202 2 0 cbr 1000 ------- 2 2.0 4.0 11 11
+ 0.202 0 4 cbr 1000 ------- 2 2.0 4.0 11 11
- 0.202 0 4 cbr 1000 ------- 2 2.0 4.0 11 11
+ 0.204 2 0 cbr 1000 ------- 2 2.0 4.0 13 13
- 0.204 2 0 cbr 1000 ------- 2 2.0 4.0 13 13
r 0.208 0 4 cbr 1000 ------- 2 2.0 4.0 10 10
r 0.21 2 0 cbr 1000 ------- 2 2.0 4.0 12 12
+ 0.21 0 4 cbr 1000 ------- 2 2.0 4.0 12 12
- 0.21 0 4 cbr 1000 ------- 2 2.0 4.0 12 12
+ 0.212 2 0 cbr 1000 ------- 2 2.0 4.0 14 14
- 0.212 2 0 cbr 1000 ------- 2 2.0 4.0 14 14
r 0.216 0 4 cbr 1000 ------- 2 2.0 4.0 11 11
r 0.218 2 0 cbr 1000 ------- 2 2.0 4.0 13 13
+ 0.218 0 4 cbr 1000 ------- 2 2.0 4.0 13 13
- 0.218 0 4 cbr 1000 ------- 2 2.0 4.0 13 13
+ 0.22 2 0 cbr 1000 ------- 2 2.0 4.0 15 15
- 0.22 2 0 cbr 1000 ------- 2 2.0 4.0 15 15
r 0.224 0 4 cbr 1000 ------- 2 2.0 4.0 12 12
r 0.226 2 0 cbr 1000 ------- 2 2.0 4.0 14 14
+ 0.226 0 4 cbr 1000 ------- 2 2.0 4.0 14 14
- 0.226 0 4 cbr 1000 ------- 2 2.0 4.0 14 14
+ 0.228 2 0 cbr 1000 ------- 2 2.0 4.0 16 16
- 0.228 2 0 cbr 1000 ------- 2 2.0 4.0 16 16
r 0.232 0 4 cbr 1000 ------- 2 2.0 4.0 13 13
r 0.234 2 0 cbr 1000 ------- 2 2.0 4.0 15 15
+ 0.234 0 4 cbr 1000 ------- 2 2.0 4.0 15 15
- 0.234 0 4 cbr 1000 ------- 2 2.0 4.0 15 15
+ 0.236 2 0 cbr 1000 ------- 2 2.0 4.0 17 17
- 0.236 2 0 cbr 1000 ------- 2 2.0 4.0 17 17
r 0.24 0 4 cbr 1000 ------- 2 2.0 4.0 14 14
r 0.242 2 0 cbr 1000 ------- 2 2.0 4.0 16 16
+ 0.242 0 4 cbr 1000 ------- 2 2.0 4.0 16 16
- 0.242 0 4 cbr 1000 ------- 2 2.0 4.0 16 16
+ 0.244 2 0 cbr 1000 ------- 2 2.0 4.0 18 18
- 0.244 2 0 cbr 1000 ------- 2 2.0 4.0 18 18
r 0.248 0 4 cbr 1000 ------- 2 2.0 4.0 15 15
r 0.25 2 0 cbr 1000 ------- 2 2.0 4.0 17 17
+ 0.25 0 4 cbr 1000 ------- 2 2.0 4.0 17 17
- 0.25 0 4 cbr 1000 ------- 2 2.0 4.0 17 17
+ 0.252 2 0 cbr 1000 ------- 2 2.0 4.0 19 19
- 0.252 2 0 cbr 1000 ------- 2 2.0 4.0 19 19
r 0.256 0 4 cbr 1000 ------- 2 2.0 4.0 16 16
r 0.258 2 0 cbr 1000 ------- 2 2.0 4.0 18 18
+ 0.258 0 4 cbr 1000 ------- 2 2.0 4.0 18 18
- 0.258 0 4 cbr 1000 ------- 2 2.0 4.0 18 18
+ 0.26 2 0 cbr 1000 ------- 2 2.0 4.0 20 20
- 0.26 2 0 cbr 1000 ------- 2 2.0 4.0 20 20
r 0.264 0 4 cbr 1000 ------- 2 2.0 4.0 17 17
r 0.266 2 0 cbr 1000 ------- 2 2.0 4.0 19 19
+ 0.266 0 4 cbr 1000 ------- 2 2.0 4.0 19 19
- 0.266 0 4 cbr 1000 ------- 2 2.0 4.0 19 19
+ 0.268 2 0 cbr 1000 ------- 2 2.0 4.0 21 21
- 0.268 2 0 cbr 1000 ------- 2 2.0 4.0 21 21
r 0.272 0 4 cbr 1000 ------- 2 2.0 4.0 18 18
r 0.274 2 0 cbr 1000 ------- 2 2.0 4.0 20 20
+ 0.274 0 4 cbr 1000 ------- 2 2.0 4.0 20 20
- 0.274 0 4 cbr 1000 ------- 2 2.0 4.0 20 20
+ 0.276 2 0 cbr 1000 ------- 2 2.0 4.0 22 22
- 0.276 2 0 cbr 1000 ------- 2 2.0 4.0 22 22
r 0.28 0 4 cbr 1000 ------- 2 2.0 4.0 19 19
r 0.282 2 0 cbr 1000 ------- 2 2.0 4.0 21 21
+ 0.282 0 4 cbr 1000 ------- 2 2.0 4.0 21 21
- 0.282 0 4 cbr 1000 ------- 2 2.0 4.0 21 21
+ 0.284 2 0 cbr 1000 ------- 2 2.0 4.0 23 23
- 0.284 2 0 cbr 1000 ------- 2 2.0 4.0 23 23
r 0.288 0 4 cbr 1000 ------- 2 2.0 4.0 20 20
r 0.29 2 0 cbr 1000 ------- 2 2.0 4.0 22 22
+ 0.29 0 4 cbr 1000 ------- 2 2.0 4.0 22 22
- 0.29 0 4 cbr 1000 ------- 2 2.0 4.0 22 22
+ 0.292 2 0 cbr 1000 ------- 2 2.0 4.0 24 24
- 0.292 2 0 cbr 1000 ------- 2 2.0 4.0 24 24
r 0.296 0 4 cbr 1000 ------- 2 2.0 4.0 21 21
r 0.298 2 0 cbr 1000 ------- 2 2.0 4.0 23 23
+ 0.298 0 4 cbr 1000 ------- 2 2.0 4.0 23 23
- 0.298 0 4 cbr 1000 ------- 2 2.0 4.0 23 23
+ 0.3 2 0 cbr 1000 ------- 2 2.0 4.0 25 25
- 0.3 2 0 cbr 1000 ------- 2 2.0 4.0 25 25
r 0.304 0 4 cbr 1000 ------- 2 2.0 4.0 22 22
r 0.306 2 0 cbr 1000 ------- 2 2.0 4.0 24 24
+ 0.306 0 4 cbr 1000 ------- 2 2.0 4.0 24 24
- 0.306 0 4 cbr 1000 ------- 2 2.0 4.0 24 24
+ 0.308 2 0 cbr 1000 ------- 2 2.0 4.0 26 26
- 0.308 2 0 cbr 1000 ------- 2 2.0 4.0 26 26
r 0.312 0 4 cbr 1000 ------- 2 2.0 4.0 23 23
r 0.314 2 0 cbr 1000 ------- 2 2.0 4.0 25 25
+ 0.314 0 4 cbr 1000 ------- 2 2.0 4.0 25 25
- 0.314 0 4 cbr 1000 ------- 2 2.0 4.0 25 25
+ 0.316 2 0 cbr 1000 ------- 2 2.0 4.0 27 27
- 0.316 2 0 cbr 1000 ------- 2 2.0 4.0 27 27
r 0.32 0 4 cbr 1000 ------- 2 2.0 4.0 24 24
r 0.322 2 0 cbr 1000 ------- 2 2.0 4.0 26 26
+ 0.322 0 4 cbr 1000 ------- 2 2.0 4.0 26 26
- 0.322 0 4 cbr 1000 ------- 2 2.0 4.0 26 26
+ 0.324 2 0 cbr 1000 ------- 2 2.0 4.0 28 28
- 0.324 2 0 cbr 1000 ------- 2 2.0 4.0 28 28
r 0.328 0 4 cbr 1000 ------- 2 2.0 4.0 25 25
r 0.33 2 0 cbr 1000 ------- 2 2.0 4.0 27 27
+ 0.33 0 4 cbr 1000 ------- 2 2.0 4.0 27 27
- 0.33 0 4 cbr 1000 ------- 2 2.0 4.0 27 27
+ 0.332 2 0 cbr 1000 ------- 2 2.0 4.0 29 29
- 0.332 2 0 cbr 1000 ------- 2 2.0 4.0 29 29
r 0.336 0 4 cbr 1000 ------- 2 2.0 4.0 26 26
r 0.338 2 0 cbr 1000 ------- 2 2.0 4.0 28 28
+ 0.338 0 4 cbr 1000 ------- 2 2.0 4.0 28 28
- 0.338 0 4 cbr 1000 ------- 2 2.0 4.0 28 28
+ 0.34 2 0 cbr 1000 ------- 2 2.0 4.0 30 30
- 0.34 2 0 cbr 1000 ------- 2 2.0 4.0 30 30
r 0.344 0 4 cbr 1000 ------- 2 2.0 4.0 27 27
r 0.346 2 0 cbr 1000 ------- 2 2.0 4.0 29 29
+ 0.346 0 4 cbr 1000 ------- 2 2.0 4.0 29 29
- 0.346 0 4 cbr 1000 ------- 2 2.0 4.0 29 29
+ 0.348 2 0 cbr 1000 ------- 2 2.0 4.0 31 31
- 0.348 2 0 cbr 1000 ------- 2 2.0 4.0 31 31
r 0.352 0 4 cbr 1000 ------- 2 2.0 4.0 28 28
r 0.354 2 0 cbr 1000 ------- 2 2.0 4.0 30 30
+ 0.354 0 4 cbr 1000 ------- 2 2.0 4.0 30 30
- 0.354 0 4 cbr 1000 ------- 2 2.0 4.0 30 30
+ 0.356 2 0 cbr 1000 ------- 2 2.0 4.0 32 32
- 0.356 2 0 cbr 1000 ------- 2 2.0 4.0 32 32
r 0.36 0 4 cbr 1000 ------- 2 2.0 4.0 29 29
r 0.362 2 0 cbr 1000 ------- 2 2.0 4.0 31 31
+ 0.362 0 4 cbr 1000 ------- 2 2.0 4.0 31 31
- 0.362 0 4 cbr 1000 ------- 2 2.0 4.0 31 31
+ 0.364 2 0 cbr 1000 ------- 2 2.0 4.0 33 33
- 0.364 2 0 cbr 1000 ------- 2 2.0 4.0 33 33
r 0.368 0 4 cbr 1000 ------- 2 2.0 4.0 30 30
r 0.37 2 0 cbr 1000 ------- 2 2.0 4.0 32 32
+ 0.37 0 4 cbr 1000 ------- 2 2.0 4.0 32 32
- 0.37 0 4 cbr 1000 ------- 2 2.0 4.0 32 32
+ 0.372 2 0 cbr 1000 ------- 2 2.0 4.0 34 34
- 0.372 2 0 cbr 1000 ------- 2 2.0 4.0 34 34
r 0.376 0 4 cbr 1000 ------- 2 2.0 4.0 31 31
r 0.378 2 0 cbr 1000 ------- 2 2.0 4.0 33 33
+ 0.378 0 4 cbr 1000 ------- 2 2.0 4.0 33 33
- 0.378 0 4 cbr 1000 ------- 2 2.0 4.0 33 33
+ 0.38 2 0 cbr 1000 ------- 2 2.0 4.0 35 35
- 0.38 2 0 cbr 1000 ------- 2 2.0 4.0 35 35
r 0.384 0 4 cbr 1000 ------- 2 2.0 4.0 32 32
r 0.386 2 0 cbr 1000 ------- 2 2.0 4.0 34 34
+ 0.386 0 4 cbr 1000 ------- 2 2.0 4.0 34 34
- 0.386 0 4 cbr 1000 ------- 2 2.0 4.0 34 34
+ 0.388 2 0 cbr 1000 ------- 2 2.0 4.0 36 36
- 0.388 2 0 cbr 1000 ------- 2 2.0 4.0 36 36
r 0.392 0 4 cbr 1000 ------- 2 2.0 4.0 33 33
r 0.394 2 0 cbr 1000 ------- 2 2.0 4.0 35 35
+ 0.394 0 4 cbr 1000 ------- 2 2.0 4.0 35 35
- 0.394 0 4 cbr 1000 ------- 2 2.0 4.0 35 35
+ 0.396 2 0 cbr 1000 ------- 2 2.0 4.0 37 37
- 0.396 2 0 cbr 1000 ------- 2 2.0 4.0 37 37
r 0.4 0 4 cbr 1000 ------- 2 2.0 4.0 34 34
r 0.402 2 0 cbr 1000 ------- 2 2.0 4.0 36 36
+ 0.402 0 4 cbr 1000 ------- 2 2.0 4.0 36 36
- 0.402 0 4 cbr 1000 ------- 2 2.0 4.0 36 36
+ 0.404 2 0 cbr 1000 ------- 2 2.0 4.0 38 38
- 0.404 2 0 cbr 1000 ------- 2 2.0 4.0 38 38
r 0.408 0 4 cbr 1000 ------- 2 2.0 4.0 35 35
r 0.41 2 0 cbr 1000 ------- 2 2.0 4.0 37 37
+ 0.41 0 4 cbr 1000 ------- 2 2.0 4.0 37 37
- 0.41 0 4 cbr 1000 ------- 2 2.0 4.0 37 37
+ 0.412 2 0 cbr 1000 ------- 2 2.0 4.0 39 39
- 0.412 2 0 cbr 1000 ------- 2 2.0 4.0 39 39
r 0.416 0 4 cbr 1000 ------- 2 2.0 4.0 36 36
r 0.418 2 0 cbr 1000 ------- 2 2.0 4.0 38 38
+ 0.418 0 4 cbr 1000 ------- 2 2.0 4.0 38 38
- 0.418 0 4 cbr 1000 ------- 2 2.0 4.0 38 38
+ 0.42 2 0 cbr 1000 ------- 2 2.0 4.0 40 40
- 0.42 2 0 cbr 1000 ------- 2 2.0 4.0 40 40
r 0.424 0 4 cbr 1000 ------- 2 2.0 4.0 37 37
r 0.426 2 0 cbr 1000 ------- 2 2.0 4.0 39 39
+ 0.426 0 4 cbr 1000 ------- 2 2.0 4.0 39 39
- 0.426 0 4 cbr 1000 ------- 2 2.0 4.0 39 39
+ 0.428 2 0 cbr 1000 ------- 2 2.0 4.0 41 41
- 0.428 2 0 cbr 1000 ------- 2 2.0 4.0 41 41
r 0.432 0 4 cbr 1000 ------- 2 2.0 4.0 38 38
r 0.434 2 0 cbr 1000 ------- 2 2.0 4.0 40 40
+ 0.434 0 4 cbr 1000 ------- 2 2.0 4.0 40 40
- 0.434 0 4 cbr 1000 ------- 2 2.0 4.0 40 40
+ 0.436 2 0 cbr 1000 ------- 2 2.0 4.0 42 42
- 0.436 2 0 cbr 1000 ------- 2 2.0 4.0 42 42
r 0.44 0 4 cbr 1000 ------- 2 2.0 4.0 39 39
r 0.442 2 0 cbr 1000 ------- 2 2.0 4.0 41 41
+ 0.442 0 4 cbr 1000 ------- 2 2.0 4.0 41 41
- 0.442 0 4 cbr 1000 ------- 2 2.0 4.0 41 41
+ 0.444 2 0 cbr 1000 ------- 2 2.0 4.0 43 43
- 0.444 2 0 cbr 1000 ------- 2 2.0 4.0 43 43
r 0.448 0 4 cbr 1000 ------- 2 2.0 4.0 40 40
r 0.45 2 0 cbr 1000 ------- 2 2.0 4.0 42 42
+ 0.45 0 4 cbr 1000 ------- 2 2.0 4.0 42 42
- 0.45 0 4 cbr 1000 ------- 2 2.0 4.0 42 42
+ 0.452 2 0 cbr 1000 ------- 2 2.0 4.0 44 44
- 0.452 2 0 cbr 1000 ------- 2 2.0 4.0 44 44
r 0.456 0 4 cbr 1000 ------- 2 2.0 4.0 41 41
r 0.458 2 0 cbr 1000 ------- 2 2.0 4.0 43 43
+ 0.458 0 4 cbr 1000 ------- 2 2.0 4.0 43 43
- 0.458 0 4 cbr 1000 ------- 2 2.0 4.0 43 43
+ 0.46 2 0 cbr 1000 ------- 2 2.0 4.0 45 45
- 0.46 2 0 cbr 1000 ------- 2 2.0 4.0 45 45
r 0.464 0 4 cbr 1000 ------- 2 2.0 4.0 42 42
r 0.466 2 0 cbr 1000 ------- 2 2.0 4.0 44 44
+ 0.466 0 4 cbr 1000 ------- 2 2.0 4.0 44 44
- 0.466 0 4 cbr 1000 ------- 2 2.0 4.0 44 44
+ 0.468 2 0 cbr 1000 ------- 2 2.0 4.0 46 46
- 0.468 2 0 cbr 1000 ------- 2 2.0 4.0 46 46
r 0.472 0 4 cbr 1000 ------- 2 2.0 4.0 43 43
r 0.474 2 0 cbr 1000 ------- 2 2.0 4.0 45 45
+ 0.474 0 4 cbr 1000 ------- 2 2.0 4.0 45 45
- 0.474 0 4 cbr 1000 ------- 2 2.0 4.0 45 45
+ 0.476 2 0 cbr 1000 ------- 2 2.0 4.0 47 47
- 0.476 2 0 cbr 1000 ------- 2 2.0 4.0 47 47
r 0.48 0 4 cbr 1000 ------- 2 2.0 4.0 44 44
r 0.482 2 0 cbr 1000 ------- 2 2.0 4.0 46 46
+ 0.482 0 4 cbr 1000 ------- 2 2.0 4.0 46 46
- 0.482 0 4 cbr 1000 ------- 2 2.0 4.0 46 46
+ 0.484 2 0 cbr 1000 ------- 2 2.0 4.0 48 48
- 0.484 2 0 cbr 1000 ------- 2 2.0 4.0 48 48
r 0.488 0 4 cbr 1000 ------- 2 2.0 4.0 45 45
r 0.49 2 0 cbr 1000 ------- 2 2.0 4.0 47 47
+ 0.49 0 4 cbr 1000 ------- 2 2.0 4.0 47 47
- 0.49 0 4 cbr 1000 ------- 2 2.0 4.0 47 47
+ 0.492 2 0 cbr 1000 ------- 2 2.0 4.0 49 49
- 0.492 2 0 cbr 1000 ------- 2 2.0 4.0 49 49
r 0.496 0 4 cbr 1000 ------- 2 2.0 4.0 46 46
r 0.498 2 0 cbr 1000 ------- 2 2.0 4.0 48 48
+ 0.498 0 4 cbr 1000 ------- 2 2.0 4.0 48 48
- 0.498 0 4 cbr 1000 ------- 2 2.0 4.0 48 48
+ 0.5 2 0 cbr 1000 ------- 2 2.0 4.0 50 50
- 0.5 2 0 cbr 1000 ------- 2 2.0 4.0 50 50
r 0.504 0 4 cbr 1000 ------- 2 2.0 4.0 47 47
r 0.506 2 0 cbr 1000 ------- 2 2.0 4.0 49 49
+ 0.506 0 4 cbr 1000 ------- 2 2.0 4.0 49 49
- 0.506 0 4 cbr 1000 ------- 2 2.0 4.0 49 49
+ 0.508 2 0 cbr 1000 ------- 2 2.0 4.0 51 51
- 0.508 2 0 cbr 1000 ------- 2 2.0 4.0 51 51
r 0.512 0 4 cbr 1000 ------- 2 2.0 4.0 48 48
r 0.514 2 0 cbr 1000 ------- 2 2.0 4.0 50 50
+ 0.514 0 4 cbr 1000 ------- 2 2.0 4.0 50 50
- 0.514 0 4 cbr 1000 ------- 2 2.0 4.0 50 50
+ 0.516 2 0 cbr 1000 ------- 2 2.0 4.0 52 52
- 0.516 2 0 cbr 1000 ------- 2 2.0 4.0 52 52
r 0.52 0 4 cbr 1000 ------- 2 2.0 4.0 49 49
r 0.522 2 0 cbr 1000 ------- 2 2.0 4.0 51 51
+ 0.522 0 4 cbr 1000 ------- 2 2.0 4.0 51 51
- 0.522 0 4 cbr 1000 ------- 2 2.0 4.0 51 51
+ 0.524 2 0 cbr 1000 ------- 2 2.0 4.0 53 53
- 0.524 2 0 cbr 1000 ------- 2 2.0 4.0 53 53
r 0.528 0 4 cbr 1000 ------- 2 2.0 4.0 50 50
r 0.53 2 0 cbr 1000 ------- 2 2.0 4.0 52 52
+ 0.53 0 4 cbr 1000 ------- 2 2.0 4.0 52 52
- 0.53 0 4 cbr 1000 ------- 2 2.0 4.0 52 52
+ 0.532 2 0 cbr 1000 ------- 2 2.0 4.0 54 54
- 0.532 2 0 cbr 1000 ------- 2 2.0 4.0 54 54
r 0.536 0 4 cbr 1000 ------- 2 2.0 4.0 51 51
r 0.538 2 0 cbr 1000 ------- 2 2.0 4.0 53 53
+ 0.538 0 4 cbr 1000 ------- 2 2.0 4.0 53 53
- 0.538 0 4 cbr 1000 ------- 2 2.0 4.0 53 53
+ 0.54 2 0 cbr 1000 ------- 2 2.0 4.0 55 55
- 0.54 2 0 cbr 1000 ------- 2 2.0 4.0 55 55
r 0.544 0 4 cbr 1000 ------- 2 2.0 4.0 52 52
r 0.546 2 0 cbr 1000 ------- 2 2.0 4.0 54 54
+ 0.546 0 4 cbr 1000 ------- 2 2.0 4.0 54 54
- 0.546 0 4 cbr 1000 ------- 2 2.0 4.0 54 54
+ 0.548 2 0 cbr 1000 ------- 2 2.0 4.0 56 56
- 0.548 2 0 cbr 1000 ------- 2 2.0 4.0 56 56
r 0.552 0 4 cbr 1000 ------- 2 2.0 4.0 53 53
r 0.554 2 0 cbr 1000 ------- 2 2.0 4.0 55 55
+ 0.554 0 4 cbr 1000 ------- 2 2.0 4.0 55 55
- 0.554 0 4 cbr 1000 ------- 2 2.0 4.0 55 55
+ 0.556 2 0 cbr 1000 ------- 2 2.0 4.0 57 57
- 0.556 2 0 cbr 1000 ------- 2 2.0 4.0 57 57
r 0.56 0 4 cbr 1000 ------- 2 2.0 4.0 54 54
r 0.562 2 0 cbr 1000 ------- 2 2.0 4.0 56 56
+ 0.562 0 4 cbr 1000 ------- 2 2.0 4.0 56 56
- 0.562 0 4 cbr 1000 ------- 2 2.0 4.0 56 56
+ 0.564 2 0 cbr 1000 ------- 2 2.0 4.0 58 58
- 0.564 2 0 cbr 1000 ------- 2 2.0 4.0 58 58
r 0.568 0 4 cbr 1000 ------- 2 2.0 4.0 55 55
r 0.57 2 0 cbr 1000 ------- 2 2.0 4.0 57 57
+ 0.57 0 4 cbr 1000 ------- 2 2.0 4.0 57 57
- 0.57 0 4 cbr 1000 ------- 2 2.0 4.0 57 57
+ 0.572 2 0 cbr 1000 ------- 2 2.0 4.0 59 59
- 0.572 2 0 cbr 1000 ------- 2 2.0 4.0 59 59
r 0.576 0 4 cbr 1000 ------- 2 2.0 4.0 56 56
r 0.578 2 0 cbr 1000 ------- 2 2.0 4.0 58 58
+ 0.578 0 4 cbr 1000 ------- 2 2.0 4.0 58 58
- 0.578 0 4 cbr 1000 ------- 2 2.0 4.0 58 58
+ 0.58 2 0 cbr 1000 ------- 2 2.0 4.0 60 60
- 0.58 2 0 cbr 1000 ------- 2 2.0 4.0 60 60
r 0.584 0 4 cbr 1000 ------- 2 2.0 4.0 57 57
r 0.586 2 0 cbr 1000 ------- 2 2.0 4.0 59 59
+ 0.586 0 4 cbr 1000 ------- 2 2.0 4.0 59 59
- 0.586 0 4 cbr 1000 ------- 2 2.0 4.0 59 59
+ 0.588 2 0 cbr 1000 ------- 2 2.0 4.0 61 61
- 0.588 2 0 cbr 1000 ------- 2 2.0 4.0 61 61
r 0.592 0 4 cbr 1000 ------- 2 2.0 4.0 58 58
r 0.594 2 0 cbr 1000 ------- 2 2.0 4.0 60 60
+ 0.594 0 4 cbr 1000 ------- 2 2.0 4.0 60 60
- 0.594 0 4 cbr 1000 ------- 2 2.0 4.0 60 60
+ 0.596 2 0 cbr 1000 ------- 2 2.0 4.0 62 62
- 0.596 2 0 cbr 1000 ------- 2 2.0 4.0 62 62
+ 0.6 1 0 tcp 40 ------- 1 1.0 5.0 0 63
- 0.6 1 0 tcp 40 ------- 1 1.0 5.0 0 63
r 0.6 0 4 cbr 1000 ------- 2 2.0 4.0 59 59
r 0.602 2 0 cbr 1000 ------- 2 2.0 4.0 61 61
+ 0.602 0 4 cbr 1000 ------- 2 2.0 4.0 61 61
- 0.602 0 4 cbr 1000 ------- 2 2.0 4.0 61 61
+ 0.604 2 0 cbr 1000 ------- 2 2.0 4.0 63 64
- 0.604 2 0 cbr 1000 ------- 2 2.0 4.0 63 64
r 0.608 0 4 cbr 1000 ------- 2 2.0 4.0 60 60
r 0.61 2 0 cbr 1000 ------- 2 2.0 4.0 62 62
+ 0.61 0 4 cbr 1000 ------- 2 2.0 4.0 62 62
- 0.61 0 4 cbr 1000 ------- 2 2.0 4.0 62 62
r 0.61016 1 0 tcp 40 ------- 1 1.0 5.0 0 63
+ 0.61016 0 5 tcp 40 ------- 1 1.0 5.0 0 63
- 0.61016 0 5 tcp 40 ------- 1 1.0 5.0 0 63
+ 0.612 2 0 cbr 1000 ------- 2 2.0 4.0 64 65
- 0.612 2 0 cbr 1000 ------- 2 2.0 4.0 64 65
r 0.616 0 4 cbr 1000 ------- 2 2.0 4.0 61 61
r 0.618 2 0 cbr 1000 ------- 2 2.0 4.0 63 64
+ 0.618 0 4 cbr 1000 ------- 2 2.0 4.0 63 64
- 0.618 0 4 cbr 1000 ------- 2 2.0 4.0 63 64
+ 0.62 2 0 cbr 1000 ------- 2 2.0 4.0 65 66
- 0.62 2 0 cbr 1000 ------- 2 2.0 4.0 65 66
r 0.62032 0 5 tcp 40 ------- 1 1.0 5.0 0 63
+ 0.62032 5 0 ack 40 ------- 1 5.0 1.0 0 67
- 0.62032 5 0 ack 40 ------- 1 5.0 1.0 0 67
r 0.624 0 4 cbr 1000 ------- 2 2.0 4.0 62 62
r 0.626 2 0 cbr 1000 ------- 2 2.0 4.0 64 65
+ 0.626 0 4 cbr 1000 ------- 2 2.0 4.0 64 65
- 0.626 0 4 cbr 1000 ------- 2 2.0 4.0 64 65
+ 0.628 2 0 cbr 1000 ------- 2 2.0 4.0 66 68
- 0.628 2 0 cbr 1000 ------- 2 2.0 4.0 66 68
r 0.63048 5 0 ack 40 ------- 1 5.0 1.0 0 67
+ 0.63048 0 1 ack 40 ------- 1 5.0 1.0 0 67
- 0.63048 0 1 ack 40 ------- 1 5.0 1.0 0 67
r 0.632 0 4 cbr 1000 ------- 2 2.0 4.0 63 64
r 0.634 2 0 cbr 1000 ------- 2 2.0 4.0 65 66
+ 0.634 0 4 cbr 1000 ------- 2 2.0 4.0 65 66
- 0.634 0 4 cbr 1000 ------- 2 2.0 4.0 65 66
+ 0.636 2 0 cbr 1000 ------- 2 2.0 4.0 67 69
- 0.636 2 0 cbr 1000 ------- 2 2.0 4.0 67 69
r 0.64 0 4 cbr 1000 ------- 2 2.0 4.0 64 65
r 0.64064 0 1 ack 40 ------- 1 5.0 1.0 0 67
+ 0.64064 1 0 tcp 1040 ------- 1 1.0 5.0 1 70
- 0.64064 1 0 tcp 1040 ------- 1 1.0 5.0 1 70
+ 0.64064 1 0 tcp 1040 ------- 1 1.0 5.0 2 71
r 0.642 2 0 cbr 1000 ------- 2 2.0 4.0 66 68
+ 0.642 0 4 cbr 1000 ------- 2 2.0 4.0 66 68
- 0.642 0 4 cbr 1000 ------- 2 2.0 4.0 66 68
+ 0.644 2 0 cbr 1000 ------- 2 2.0 4.0 68 72
- 0.644 2 0 cbr 1000 ------- 2 2.0 4.0 68 72
- 0.6448 1 0 tcp 1040 ------- 1 1.0 5.0 2 71
r 0.648 0 4 cbr 1000 ------- 2 2.0 4.0 65 66
r 0.65 2 0 cbr 1000 ------- 2 2.0 4.0 67 69
+ 0.65 0 4 cbr 1000 ------- 2 2.0 4.0 67 69
- 0.65 0 4 cbr 1000 ------- 2 2.0 4.0 67 69
+ 0.652 2 0 cbr 1000 ------- 2 2.0 4.0 69 73
- 0.652 2 0 cbr 1000 ------- 2 2.0 4.0 69 73
r 0.6548 1 0 tcp 1040 ------- 1 1.0 5.0 1 70
+ 0.6548 0 5 tcp 1040 ------- 1 1.0 5.0 1 70
- 0.6548 0 5 tcp 1040 ------- 1 1.0 5.0 1 70
r 0.656 0 4 cbr 1000 ------- 2 2.0 4.0 66 68
r 0.658 2 0 cbr 1000 ------- 2 2.0 4.0 68 72
+ 0.658 0 4 cbr 1000 ------- 2 2.0 4.0 68 72
- 0.658 0 4 cbr 1000 ------- 2 2.0 4.0 68 72
r 0.65896 1 0 tcp 1040 ------- 1 1.0 5.0 2 71
+ 0.65896 0 5 tcp 1040 ------- 1 1.0 5.0 2 71
- 0.65896 0 5 tcp 1040 ------- 1 1.0 5.0 2 71
+ 0.66 2 0 cbr 1000 ------- 2 2.0 4.0 70 74
- 0.66 2 0 cbr 1000 ------- 2 2.0 4.0 70 74
r 0.664 0 4 cbr 1000 ------- 2 2.0 4.0 67 69
r 0.666 2 0 cbr 1000 ------- 2 2.0 4.0 69 73
+ 0.666 0 4 cbr 1000 ------- 2 2.0 4.0 69 73
- 0.666 0 4 cbr 1000 ------- 2 2.0 4.0 69 73
+ 0.668 2 0 cbr 1000 ------- 2 2.0 4.0 71 75
- 0.668 2 0 cbr 1000 ------- 2 2.0 4.0 71 75
r 0.66896 0 5 tcp 1040 ------- 1 1.0 5.0 1 70
+ 0.66896 5 0 ack 40 ------- 1 5.0 1.0 1 76
- 0.66896 5 0 ack 40 ------- 1 5.0 1.0 1 76
r 0.672 0 4 cbr 1000 ------- 2 2.0 4.0 68 72
r 0.67312 0 5 tcp 1040 ------- 1 1.0 5.0 2 71
+ 0.67312 5 0 ack 40 ------- 1 5.0 1.0 2 77
- 0.67312 5 0 ack 40 ------- 1 5.0 1.0 2 77
r 0.674 2 0 cbr 1000 ------- 2 2.0 4.0 70 74
+ 0.674 0 4 cbr 1000 ------- 2 2.0 4.0 70 74
- 0.674 0 4 cbr 1000 ------- 2 2.0 4.0 70 74
+ 0.676 2 0 cbr 1000 ------- 2 2.0 4.0 72 78
- 0.676 2 0 cbr 1000 ------- 2 2.0 4.0 72 78
r 0.67912 5 0 ack 40 ------- 1 5.0 1.0 1 76
+ 0.67912 0 1 ack 40 ------- 1 5.0 1.0 1 76
- 0.67912 0 1 ack 40 ------- 1 5.0 1.0 1 76
r 0.68 0 4 cbr 1000 ------- 2 2.0 4.0 69 73
r 0.682 2 0 cbr 1000 ------- 2 2.0 4.0 71 75
+ 0.682 0 4 cbr 1000 ------- 2 2.0 4.0 71 75
- 0.682 0 4 cbr 1000 ------- 2 2.0 4.0 71 75
r 0.68328 5 0 ack 40 ------- 1 5.0 1.0 2 77
+ 0.68328 0 1 ack 40 ------- 1 5.0 1.0 2 77
- 0.68328 0 1 ack 40 ------- 1 5.0 1.0 2 77
+ 0.684 2 0 cbr 1000 ------- 2 2.0 4.0 73 79
- 0.684 2 0 cbr 1000 ------- 2 2.0 4.0 73 79
r 0.688 0 4 cbr 1000 ------- 2 2.0 4.0 70 74
r 0.68928 0 1 ack 40 ------- 1 5.0 1.0 1 76
+ 0.68928 1 0 tcp 1040 ------- 1 1.0 5.0 3 80
- 0.68928 1 0 tcp 1040 ------- 1 1.0 5.0 3 80
+ 0.68928 1 0 tcp 1040 ------- 1 1.0 5.0 4 81
r 0.69 2 0 cbr 1000 ------- 2 2.0 4.0 72 78
+ 0.69 0 4 cbr 1000 ------- 2 2.0 4.0 72 78
- 0.69 0 4 cbr 1000 ------- 2 2.0 4.0 72 78
+ 0.692 2 0 cbr 1000 ------- 2 2.0 4.0 74 82
- 0.692 2 0 cbr 1000 ------- 2 2.0 4.0 74 82
r 0.69344 0 1 ack 40 ------- 1 5.0 1.0 2 77
+ 0.69344 1 0 tcp 1040 ------- 1 1.0 5.0 5 83
+ 0.69344 1 0 tcp 1040 ------- 1 1.0 5.0 6 84
- 0.69344 1 0 tcp 1040 ------- 1 1.0 5.0 4 81
r 0.696 0 4 cbr 1000 ------- 2 2.0 4.0 71 75
- 0.6976 1 0 tcp 1040 ------- 1 1.0 5.0 5 83
r 0.698 2 0 cbr 1000 ------- 2 2.0 4.0 73 79
+ 0.698 0 4 cbr 1000 ------- 2 2.0 4.0 73 79
- 0.698 0 4 cbr 1000 ------- 2 2.0 4.0 73 79
+ 0.7 2 0 cbr 1000 ------- 2 2.0 4.0 75 85
- 0.7 2 0 cbr 1000 ------- 2 2.0 4.0 75 85
- 0.70176 1 0 tcp 1040 ------- 1 1.0 5.0 6 84
r 0.70344 1 0 tcp 1040 ------- 1 1.0 5.0 3 80
+ 0.70344 0 5 tcp 1040 ------- 1 1.0 5.0 3 80
- 0.70344 0 5 tcp 1040 ------- 1 1.0 5.0 3 80
r 0.704 0 4 cbr 1000 ------- 2 2.0 4.0 72 78
r 0.706 2 0 cbr 1000 ------- 2 2.0 4.0 74 82
+ 0.706 0 4 cbr 1000 ------- 2 2.0 4.0 74 82
- 0.706 0 4 cbr 1000 ------- 2 2.0 4.0 74 82
r 0.7076 1 0 tcp 1040 ------- 1 1.0 5.0 4 81
+ 0.7076 0 5 tcp 1040 ------- 1 1.0 5.0 4 81
- 0.7076 0 5 tcp 1040 ------- 1 1.0 5.0 4 81
+ 0.708 2 0 cbr 1000 ------- 2 2.0 4.0 76 86
- 0.708 2 0 cbr 1000 ------- 2 2.0 4.0 76 86
r 0.71176 1 0 tcp 1040 ------- 1 1.0 5.0 5 83
+ 0.71176 0 5 tcp 1040 ------- 1 1.0 5.0 5 83
- 0.71176 0 5 tcp 1040 ------- 1 1.0 5.0 5 83
r 0.712 0 4 cbr 1000 ------- 2 2.0 4.0 73 79
r 0.714 2 0 cbr 1000 ------- 2 2.0 4.0 75 85
+ 0.714 0 4 cbr 1000 ------- 2 2.0 4.0 75 85
- 0.714 0 4 cbr 1000 ------- 2 2.0 4.0 75 85
r 0.71592 1 0 tcp 1040 ------- 1 1.0 5.0 6 84
+ 0.71592 0 5 tcp 1040 ------- 1 1.0 5.0 6 84
- 0.71592 0 5 tcp 1040 ------- 1 1.0 5.0 6 84
+ 0.716 2 0 cbr 1000 ------- 2 2.0 4.0 77 87
- 0.716 2 0 cbr 1000 ------- 2 2.0 4.0 77 87
r 0.7176 0 5 tcp 1040 ------- 1 1.0 5.0 3 80
+ 0.7176 5 0 ack 40 ------- 1 5.0 1.0 3 88
- 0.7176 5 0 ack 40 ------- 1 5.0 1.0 3 88
r 0.72 0 4 cbr 1000 ------- 2 2.0 4.0 74 82
r 0.72176 0 5 tcp 1040 ------- 1 1.0 5.0 4 81
+ 0.72176 5 0 ack 40 ------- 1 5.0 1.0 4 89
- 0.72176 5 0 ack 40 ------- 1 5.0 1.0 4 89
r 0.722 2 0 cbr 1000 ------- 2 2.0 4.0 76 86
+ 0.722 0 4 cbr 1000 ------- 2 2.0 4.0 76 86
- 0.722 0 4 cbr 1000 ------- 2 2.0 4.0 76 86
+ 0.724 2 0 cbr 1000 ------- 2 2.0 4.0 78 90
- 0.724 2 0 cbr 1000 ------- 2 2.0 4.0 78 90
r 0.72592 0 5 tcp 1040 ------- 1 1.0 5.0 5 83
+ 0.72592 5 0 ack 40 ------- 1 5.0 1.0 5 91
- 0.72592 5 0 ack 40 ------- 1 5.0 1.0 5 91
r 0.72776 5 0 ack 40 ------- 1 5.0 1.0 3 88
+ 0.72776 0 1 ack 40 ------- 1 5.0 1.0 3 88
- 0.72776 0 1 ack 40 ------- 1 5.0 1.0 3 88
r 0.728 0 4 cbr 1000 ------- 2 2.0 4.0 75 85
r 0.73 2 0 cbr 1000 ------- 2 2.0 4.0 77 87
+ 0.73 0 4 cbr 1000 ------- 2 2.0 4.0 77 87
- 0.73 0 4 cbr 1000 ------- 2 2.0 4.0 77 87
r 0.73008 0 5 tcp 1040 ------- 1 1.0 5.0 6 84
+ 0.73008 5 0 ack 40 ------- 1 5.0 1.0 6 92
- 0.73008 5 0 ack 40 ------- 1 5.0 1.0 6 92
r 0.73192 5 0 ack 40 ------- 1 5.0 1.0 4 89
+ 0.73192 0 1 ack 40 ------- 1 5.0 1.0 4 89
- 0.73192 0 1 ack 40 ------- 1 5.0 1.0 4 89
+ 0.732 2 0 cbr 1000 ------- 2 2.0 4.0 79 93
- 0.732 2 0 cbr 1000 ------- 2 2.0 4.0 79 93
r 0.736 0 4 cbr 1000 ------- 2 2.0 4.0 76 86
r 0.73608 5 0 ack 40 ------- 1 5.0 1.0 5 91
+ 0.73608 0 1 ack 40 ------- 1 5.0 1.0 5 91
- 0.73608 0 1 ack 40 ------- 1 5.0 1.0 5 91
r 0.73792 0 1 ack 40 ------- 1 5.0 1.0 3 88
+ 0.73792 1 0 tcp 1040 ------- 1 1.0 5.0 7 94
- 0.73792 1 0 tcp 1040 ------- 1 1.0 5.0 7 94
+ 0.73792 1 0 tcp 1040 ------- 1 1.0 5.0 8 95
r 0.738 2 0 cbr 1000 ------- 2 2.0 4.0 78 90
+ 0.738 0 4 cbr 1000 ------- 2 2.0 4.0 78 90
- 0.738 0 4 cbr 1000 ------- 2 2.0 4.0 78 90
+ 0.74 2 0 cbr 1000 ------- 2 2.0 4.0 80 96
- 0.74 2 0 cbr 1000 ------- 2 2.0 4.0 80 96
r 0.74024 5 0 ack 40 ------- 1 5.0 1.0 6 92
+ 0.74024 0 1 ack 40 ------- 1 5.0 1.0 6 92
- 0.74024 0 1 ack 40 ------- 1 5.0 1.0 6 92
r 0.74208 0 1 ack 40 ------- 1 5.0 1.0 4 89
+ 0.74208 1 0 tcp 1040 ------- 1 1.0 5.0 9 97
+ 0.74208 1 0 tcp 1040 ------- 1 1.0 5.0 10 98
- 0.74208 1 0 tcp 1040 ------- 1 1.0 5.0 8 95
r 0.744 0 4 cbr 1000 ------- 2 2.0 4.0 77 87
r 0.746 2 0 cbr 1000 ------- 2 2.0 4.0 79 93
+ 0.746 0 4 cbr 1000 ------- 2 2.0 4.0 79 93
- 0.746 0 4 cbr 1000 ------- 2 2.0 4.0 79 93
r 0.74624 0 1 ack 40 ------- 1 5.0 1.0 5 91
+ 0.74624 1 0 tcp 1040 ------- 1 1.0 5.0 11 99
+ 0.74624 1 0 tcp 1040 ------- 1 1.0 5.0 12 100
- 0.74624 1 0 tcp 1040 ------- 1 1.0 5.0 9 97
+ 0.748 2 0 cbr 1000 ------- 2 2.0 4.0 81 101
- 0.748 2 0 cbr 1000 ------- 2 2.0 4.0 81 101
r 0.7504 0 1 ack 40 ------- 1 5.0 1.0 6 92
+ 0.7504 1 0 tcp 1040 ------- 1 1.0 5.0 13 102
+ 0.7504 1 0 tcp 1040 ------- 1 1.0 5.0 14 103
- 0.7504 1 0 tcp 1040 ------- 1 1.0 5.0 10 98
r 0.752 0 4 cbr 1000 ------- 2 2.0 4.0 78 90
r 0.75208 1 0 tcp 1040 ------- 1 1.0 5.0 7 94
+ 0.75208 0 5 tcp 1040 ------- 1 1.0 5.0 7 94
- 0.75208 0 5 tcp 1040 ------- 1 1.0 5.0 7 94
r 0.754 2 0 cbr 1000 ------- 2 2.0 4.0 80 96
+ 0.754 0 4 cbr 1000 ------- 2 2.0 4.0 80 96
- 0.754 0 4 cbr 1000 ------- 2 2.0 4.0 80 96
- 0.75456 1 0 tcp 1040 ------- 1 1.0 5.0 11 99
+ 0.756 2 0 cbr 1000 ------- 2 2.0 4.0 82 104
- 0.756 2 0 cbr 1000 ------- 2 2.0 4.0 82 104
r 0.75624 1 0 tcp 1040 ------- 1 1.0 5.0 8 95
+ 0.75624 0 5 tcp 1040 ------- 1 1.0 5.0 8 95
- 0.75624 0 5 tcp 1040 ------- 1 1.0 5.0 8 95
- 0.75872 1 0 tcp 1040 ------- 1 1.0 5.0 12 100
r 0.76 0 4 cbr 1000 ------- 2 2.0 4.0 79 93
r 0.7604 1 0 tcp 1040 ------- 1 1.0 5.0 9 97
+ 0.7604 0 5 tcp 1040 ------- 1 1.0 5.0 9 97
- 0.7604 0 5 tcp 1040 ------- 1 1.0 5.0 9 97
r 0.762 2 0 cbr 1000 ------- 2 2.0 4.0 81 101
+ 0.762 0 4 cbr 1000 ------- 2 2.0 4.0 81 101
- 0.762 0 4 cbr 1000 ------- 2 2.0 4.0 81 101
- 0.76288 1 0 tcp 1040 ------- 1 1.0 5.0 13 102
+ 0.764 2 0 cbr 1000 ------- 2 2.0 4.0 83 105
- 0.764 2 0 cbr 1000 ------- 2 2.0 4.0 83 105
r 0.76456 1 0 tcp 1040 ------- 1 1.0 5.0 10 98
+ 0.76456 0 5 tcp 1040 ------- 1 1.0 5.0 10 98
- 0.76456 0 5 tcp 1040 ------- 1 1.0 5.0 10 98
r 0.76624 0 5 tcp 1040 ------- 1 1.0 5.0 7 94
+ 0.76624 5 0 ack 40 ------- 1 5.0 1.0 7 106
- 0.76624 5 0 ack 40 ------- 1 5.0 1.0 7 106
- 0.76704 1 0 tcp 1040 ------- 1 1.0 5.0 14 103
r 0.768 0 4 cbr 1000 ------- 2 2.0 4.0 80 96
r 0.76872 1 0 tcp 1040 ------- 1 1.0 5.0 11 99
+ 0.76872 0 5 tcp 1040 ------- 1 1.0 5.0 11 99
- 0.76872 0 5 tcp 1040 ------- 1 1.0 5.0 11 99
r 0.77 2 0 cbr 1000 ------- 2 2.0 4.0 82 104
+ 0.77 0 4 cbr 1000 ------- 2 2.0 4.0 82 104
- 0.77 0 4 cbr 1000 ------- 2 2.0 4.0 82 104
r 0.7704 0 5 tcp 1040 ------- 1 1.0 5.0 8 95
+ 0.7704 5 0 ack 40 ------- 1 5.0 1.0 8 107
- 0.7704 5 0 ack 40 ------- 1 5.0 1.0 8 107
+ 0.772 2 0 cbr 1000 ------- 2 2.0 4.0 84 108
- 0.772 2 0 cbr 1000 ------- 2 2.0 4.0 84 108
r 0.77288 1 0 tcp 1040 ------- 1 1.0 5.0 12 100
+ 0.77288 0 5 tcp 1040 ------- 1 1.0 5.0 12 100
- 0.77288 0 5 tcp 1040 ------- 1 1.0 5.0 12 100
r 0.77456 0 5 tcp 1040 ------- 1 1.0 5.0 9 97
+ 0.77456 5 0 ack 40 ------- 1 5.0 1.0 9 109
- 0.77456 5 0 ack 40 ------- 1 5.0 1.0 9 109
r 0.776 0 4 cbr 1000 ------- 2 2.0 4.0 81 101
r 0.7764 5 0 ack 40 ------- 1 5.0 1.0 7 106
+ 0.7764 0 1 ack 40 ------- 1 5.0 1.0 7 106
- 0.7764 0 1 ack 40 ------- 1 5.0 1.0 7 106
r 0.77704 1 0 tcp 1040 ------- 1 1.0 5.0 13 102
+ 0.77704 0 5 tcp 1040 ------- 1 1.0 5.0 13 102
- 0.77704 0 5 tcp 1040 ------- 1 1.0 5.0 13 102
r 0.778 2 0 cbr 1000 ------- 2 2.0 4.0 83 105
+ 0.778 0 4 cbr 1000 ------- 2 2.0 4.0 83 105
- 0.778 0 4 cbr 1000 ------- 2 2.0 4.0 83 105
r 0.77872 0 5 tcp 1040 ------- 1 1.0 5.0 10 98
+ 0.77872 5 0 ack 40 ------- 1 5.0 1.0 10 110
- 0.77872 5 0 ack 40 ------- 1 5.0 1.0 10 110
+ 0.78 2 0 cbr 1000 ------- 2 2.0 4.0 85 111
- 0.78 2 0 cbr 1000 ------- 2 2.0 4.0 85 111
r 0.78056 5 0 ack 40 ------- 1 5.0 1.0 8 107
+ 0.78056 0 1 ack 40 ------- 1 5.0 1.0 8 107
- 0.78056 0 1 ack 40 ------- 1 5.0 1.0 8 107
r 0.7812 1 0 tcp 1040 ------- 1 1.0 5.0 14 103
+ 0.7812 0 5 tcp 1040 ------- 1 1.0 5.0 14 103
- 0.7812 0 5 tcp 1040 ------- 1 1.0 5.0 14 103
r 0.78288 0 5 tcp 1040 ------- 1 1.0 5.0 11 99
+ 0.78288 5 0 ack 40 ------- 1 5.0 1.0 11 112
- 0.78288 5 0 ack 40 ------- 1 5.0 1.0 11 112
r 0.784 0 4 cbr 1000 ------- 2 2.0 4.0 82 104
r 0.78472 5 0 ack 40 ------- 1 5.0 1.0 9 109
+ 0.78472 0 1 ack 40 ------- 1 5.0 1.0 9 109
- 0.78472 0 1 ack 40 ------- 1 5.0 1.0 9 109
r 0.786 2 0 cbr 1000 ------- 2 2.0 4.0 84 108
+ 0.786 0 4 cbr 1000 ------- 2 2.0 4.0 84 108
- 0.786 0 4 cbr 1000 ------- 2 2.0 4.0 84 108
r 0.78656 0 1 ack 40 ------- 1 5.0 1.0 7 106
+ 0.78656 1 0 tcp 1040 ------- 1 1.0 5.0 15 113
- 0.78656 1 0 tcp 1040 ------- 1 1.0 5.0 15 113
+ 0.78656 1 0 tcp 1040 ------- 1 1.0 5.0 16 114
r 0.78704 0 5 tcp 1040 ------- 1 1.0 5.0 12 100
+ 0.78704 5 0 ack 40 ------- 1 5.0 1.0 12 115
- 0.78704 5 0 ack 40 ------- 1 5.0 1.0 12 115
+ 0.788 2 0 cbr 1000 ------- 2 2.0 4.0 86 116
- 0.788 2 0 cbr 1000 ------- 2 2.0 4.0 86 116
r 0.78888 5 0 ack 40 ------- 1 5.0 1.0 10 110
+ 0.78888 0 1 ack 40 ------- 1 5.0 1.0 10 110